NMESH
4.
MESH FILE NAMES and Transformations and Motion Definition
/glade/work/kkara/regression_test/grids/s76blade_jay/s76blade_strand.part.432
0.0 0.0 0.0   1.0 1.0 1.0   1.000000 0.000000 0.000000  0.000000    0.0 0.0 0.0
/glade/work/kkara/regression_test/grids/s76blade_jay/s76blade_strand.part.432
0.0 0.0 0.0   1.0 1.0 1.0   1.000000 0.000000 0.000000  0.000000    0.0 0.0 0.0
/glade/work/kkara/regression_test/grids/s76blade_jay/s76blade_strand.part.432
0.0 0.0 0.0   1.0 1.0 1.0   1.000000 0.000000 0.000000  0.000000    0.0 0.0 0.0
/glade/work/kkara/regression_test/grids/s76blade_jay/s76blade_strand.part.432
0.0 0.0 0.0   1.0 1.0 1.0   1.000000 0.000000 0.000000  0.000000    0.0 0.0 0.0
