NMESH
1.
MESH FILE NAMES and Transformations and Motion Definition
/glade/work/kkara/regression_test/grids/s76hub_jay/hub_strand.part.36
0.0 0.0 0.0   1.0 1.0 1.0   1.000000 0.000000 0.000000  0.000000      0.0 0.0 0.0

